<?xml version="1.0" encoding="UTF-8"?>

<!-- generated on 2024-03-10 00:17:55 by Eclipse SUMO GUI Version 1.12.0
<configuration xmlns:xsi="http://www.w3.org/2001/XMLSchema-instance" xsi:noNamespaceSchemaLocation="http://sumo.dlr.de/xsd/sumoConfiguration.xsd">

    <input>
        <net-file value="../simple_sumo_network/osm.net.xml.gz"/>
        <route-files value="../simple_sumo_network/osm.passenger.trips.xml"/>
        <additional-files value="../simple_sumo_network/osm.poly.xml.gz"/>
    </input>

    <output>
        <tripinfo-output value="simple_tripinfo.xml"/>
    </output>

    <processing>
        <ignore-route-errors value="true"/>
    </processing>

    <routing>
        <device.rerouting.adaptation-steps value="18"/>
        <device.rerouting.adaptation-interval value="10"/>
    </routing>

    <report>
        <verbose value="true"/>
        <duration-log.statistics value="true"/>
        <no-step-log value="true"/>
    </report>

    <traci_server>
        <remote-port value="39461"/>
    </traci_server>

    <gui_only>
        <gui-settings-file value="../simple_sumo_network/osm.view.xml"/>
    </gui_only>

</configuration>
-->

<tripinfos xmlns:xsi="http://www.w3.org/2001/XMLSchema-instance" xsi:noNamespaceSchemaLocation="http://sumo.dlr.de/xsd/tripinfo_file.xsd">
    <tripinfo id="veh0" depart="0.00" departLane="-176509600#3_0" departPos="5.10" departSpeed="0.00" departDelay="0.00" arrival="63.00" arrivalLane="-34149770#4_0" arrivalPos="15.30" arrivalSpeed="14.24" duration="63.00" routeLength="840.18" waitingTime="0.00" waitingCount="0" stopTime="0.00" timeLoss="5.82" rerouteNo="1" devices="tripinfo_veh0 routing_veh0" vType="veh_passenger" speedFactor="1.06" vaporized=""/>
</tripinfos>
